# Solver information
# Time        	U_solver      	Ux_initial    	Ux_final      	Ux_iters      	Uy_initial    	Uy_final      	Uy_iters      	Uz_initial    	Uz_final      	Uz_iters      	U_converged   	p_solver      	p_initial     	p_final       	p_iters       	p_converged   
1             	smoothSolver	1.000000e+00	8.922740e-02	12	1.000000e+00	9.557110e-02	11	1.000000e+00	9.418800e-02	11	false	GAMG	1.000000e+00	4.837330e-03	9	true
2             	smoothSolver	1.490190e-01	1.482110e-02	10	7.874500e-01	6.889940e-02	10	7.952620e-01	7.027250e-02	10	false	GAMG	2.917230e-01	2.234710e-03	5	true
3             	smoothSolver	1.597690e-01	1.280980e-02	5	5.842380e-01	4.396920e-02	5	6.139020e-01	4.427560e-02	5	false	GAMG	1.873270e-01	9.883180e-04	6	true
4             	smoothSolver	8.057940e-02	6.275160e-03	6	4.069810e-01	3.086330e-02	6	4.832830e-01	3.489240e-02	6	false	GAMG	3.470430e-02	2.649350e-04	5	true
5             	smoothSolver	4.202990e-02	3.561870e-03	7	2.873350e-01	2.627080e-02	6	2.947610e-01	2.587180e-02	6	false	GAMG	1.879550e-02	8.249890e-05	5	true
6             	smoothSolver	3.694300e-02	2.797480e-03	7	2.492360e-01	2.359260e-02	6	2.000450e-01	1.883900e-02	6	false	GAMG	1.747070e-02	8.224280e-05	5	true
7             	smoothSolver	3.530340e-02	3.364220e-03	6	2.269830e-01	2.140730e-02	6	1.657310e-01	1.552740e-02	6	false	GAMG	1.872470e-02	1.755970e-04	4	true
8             	smoothSolver	3.205850e-02	3.046660e-03	6	2.186610e-01	1.992670e-02	6	1.589320e-01	1.414470e-02	6	false	GAMG	1.923780e-02	1.670630e-04	4	true
9             	smoothSolver	2.803930e-02	2.615550e-03	6	2.207130e-01	1.980520e-02	6	1.722080e-01	1.471240e-02	6	false	GAMG	1.968170e-02	1.501210e-04	4	true
10            	smoothSolver	2.406120e-02	2.244690e-03	6	2.303300e-01	2.049850e-02	6	1.892160e-01	1.630560e-02	6	false	GAMG	2.017980e-02	1.408690e-04	4	true
11            	smoothSolver	2.113670e-02	1.971850e-03	6	2.342270e-01	2.012510e-02	6	2.086510e-01	1.845000e-02	6	false	GAMG	2.034880e-02	1.354640e-04	4	true
12            	smoothSolver	1.885360e-02	1.812960e-03	6	2.244750e-01	1.923600e-02	6	2.324800e-01	2.065180e-02	6	false	GAMG	2.035040e-02	1.355970e-04	4	true
13            	smoothSolver	1.724140e-02	1.719340e-03	6	2.074640e-01	1.822420e-02	6	2.504430e-01	2.256790e-02	6	false	GAMG	2.036480e-02	1.344870e-04	4	true
14            	smoothSolver	1.621690e-02	1.261050e-03	7	1.913310e-01	1.711730e-02	6	2.061610e-01	1.906740e-02	6	false	GAMG	2.047370e-02	1.503040e-04	4	true
15            	smoothSolver	1.555580e-02	1.230720e-03	7	1.820850e-01	1.645890e-02	6	1.791600e-01	1.690670e-02	6	false	GAMG	2.091030e-02	1.685570e-04	4	true
16            	smoothSolver	1.507090e-02	1.209100e-03	7	1.849030e-01	1.633130e-02	6	1.596640e-01	1.544920e-02	6	false	GAMG	2.177270e-02	1.721810e-04	4	true
17            	smoothSolver	1.463440e-02	1.186440e-03	7	1.874630e-01	1.639890e-02	6	1.405260e-01	1.365390e-02	6	false	GAMG	2.293350e-02	1.640090e-04	4	true
18            	smoothSolver	1.412300e-02	1.147430e-03	7	1.885830e-01	1.687140e-02	6	1.254190e-01	1.218300e-02	6	false	GAMG	2.407820e-02	1.643400e-04	4	true
19            	smoothSolver	1.353770e-02	1.100290e-03	7	1.870480e-01	1.740640e-02	6	1.126200e-01	1.097070e-02	6	false	GAMG	2.488050e-02	1.707770e-04	4	true
20            	smoothSolver	1.288380e-02	1.052230e-03	7	1.822160e-01	1.747660e-02	6	1.043210e-01	1.018090e-02	6	false	GAMG	2.533790e-02	1.688260e-04	4	true
21            	smoothSolver	1.239330e-02	1.023800e-03	7	1.727380e-01	1.683070e-02	6	1.004600e-01	9.852230e-03	6	false	GAMG	2.589720e-02	1.747670e-04	4	true
22            	smoothSolver	1.220770e-02	1.034770e-03	7	1.614180e-01	1.594660e-02	6	1.002540e-01	1.001320e-02	6	false	GAMG	2.671290e-02	1.778620e-04	4	true
23            	smoothSolver	1.229990e-02	1.077540e-03	7	1.544770e-01	1.136160e-02	7	1.013610e-01	7.616350e-03	7	false	GAMG	2.773720e-02	1.860780e-04	4	true
24            	smoothSolver	1.267990e-02	1.141850e-03	7	1.499750e-01	1.119870e-02	7	1.038970e-01	7.997870e-03	7	false	GAMG	2.853740e-02	2.017800e-04	4	true
25            	smoothSolver	1.321630e-02	1.216760e-03	7	1.492220e-01	1.141390e-02	7	1.061340e-01	8.395000e-03	7	false	GAMG	2.956960e-02	2.205680e-04	4	true
26            	smoothSolver	1.370830e-02	1.295010e-03	7	1.597650e-01	1.270980e-02	7	1.103110e-01	9.074500e-03	7	false	GAMG	3.075140e-02	2.356320e-04	4	true
27            	smoothSolver	1.419450e-02	1.386980e-03	7	1.857730e-01	1.551960e-02	7	1.157630e-01	9.925560e-03	7	false	GAMG	3.238480e-02	2.414590e-04	4	true
28            	smoothSolver	1.481610e-02	1.138350e-03	8	1.973620e-01	1.712730e-02	7	1.194540e-01	1.062410e-02	7	false	GAMG	3.391060e-02	2.526250e-04	4	true
29            	smoothSolver	1.557530e-02	1.226790e-03	8	1.777760e-01	1.564710e-02	7	1.165840e-01	1.075270e-02	7	false	GAMG	3.449240e-02	2.579170e-04	4	true
30            	smoothSolver	1.614660e-02	1.294670e-03	8	1.643650e-01	1.453610e-02	7	1.086500e-01	1.031620e-02	7	false	GAMG	3.495190e-02	2.446320e-04	4	true
31            	smoothSolver	1.660120e-02	1.349000e-03	8	1.594010e-01	1.412100e-02	7	1.000680e-01	9.728730e-03	7	false	GAMG	3.543890e-02	2.467170e-04	4	true
32            	smoothSolver	1.706960e-02	1.398520e-03	8	1.650640e-01	1.425650e-02	7	9.555430e-02	9.551820e-03	7	false	GAMG	3.548600e-02	2.601510e-04	4	true
33            	smoothSolver	1.737690e-02	1.441250e-03	8	1.796840e-01	1.526090e-02	7	9.485830e-02	7.398550e-03	8	false	GAMG	3.493340e-02	2.589280e-04	4	true
34            	smoothSolver	1.756880e-02	1.497760e-03	8	1.978540e-01	1.746240e-02	7	9.589690e-02	7.685220e-03	8	false	GAMG	3.407900e-02	2.368290e-04	4	true
35            	smoothSolver	1.766130e-02	1.559500e-03	8	2.184840e-01	2.039350e-02	7	9.749100e-02	8.092640e-03	8	false	GAMG	3.294770e-02	2.210580e-04	4	true
36            	smoothSolver	1.760200e-02	1.574620e-03	8	2.314310e-01	2.237190e-02	7	9.769570e-02	8.420180e-03	8	false	GAMG	3.171170e-02	2.121800e-04	4	true
37            	smoothSolver	1.730050e-02	1.560980e-03	8	2.389340e-01	2.369800e-02	7	9.768530e-02	8.788300e-03	8	false	GAMG	3.034940e-02	2.012500e-04	4	true
38            	smoothSolver	1.666600e-02	1.544710e-03	8	2.419780e-01	1.833760e-02	8	9.627980e-02	9.018200e-03	8	false	GAMG	2.871550e-02	1.868170e-04	4	true
39            	smoothSolver	1.582170e-02	1.495250e-03	8	2.425590e-01	1.886580e-02	8	9.223350e-02	8.794190e-03	8	false	GAMG	2.717980e-02	1.720960e-04	4	true
40            	smoothSolver	1.476030e-02	1.417590e-03	8	2.366840e-01	1.880230e-02	8	8.521190e-02	8.164320e-03	8	false	GAMG	2.586230e-02	1.544330e-04	4	true
41            	smoothSolver	1.366840e-02	1.325880e-03	8	2.062020e-01	1.663810e-02	8	7.623770e-02	7.346130e-03	8	false	GAMG	2.501900e-02	1.476090e-04	4	true
42            	smoothSolver	1.259190e-02	1.236650e-03	8	1.772650e-01	1.429550e-02	8	6.772800e-02	6.488830e-03	8	false	GAMG	2.438910e-02	1.471790e-04	4	true
43            	smoothSolver	1.158300e-02	1.158260e-03	8	1.488310e-01	1.205080e-02	8	6.022870e-02	5.712910e-03	8	false	GAMG	2.378270e-02	1.458680e-04	4	true
44            	smoothSolver	1.067020e-02	8.338130e-04	9	1.225080e-01	9.888840e-03	8	5.374510e-02	5.059650e-03	8	false	GAMG	2.286480e-02	1.405880e-04	4	true
45            	smoothSolver	9.800020e-03	7.710960e-04	9	1.017510e-01	8.119980e-03	8	4.797810e-02	4.550490e-03	8	false	GAMG	2.166220e-02	1.266410e-04	4	true
46            	smoothSolver	9.023160e-03	7.032620e-04	9	8.522820e-02	6.713910e-03	8	4.305110e-02	4.166410e-03	8	false	GAMG	2.027140e-02	1.097520e-04	4	true
47            	smoothSolver	8.349490e-03	8.266780e-04	8	7.261340e-02	5.560940e-03	8	3.905080e-02	3.718150e-03	8	false	GAMG	1.961460e-02	9.692050e-05	4	true
48            	smoothSolver	7.778400e-03	7.452040e-04	8	6.389080e-02	6.315570e-03	7	3.585970e-02	3.203270e-03	8	false	GAMG	1.939610e-02	9.568260e-05	4	true
49            	smoothSolver	7.277650e-03	6.647050e-04	8	5.949370e-02	5.618720e-03	7	3.353940e-02	2.678470e-03	8	false	GAMG	1.930390e-02	1.072700e-04	4	true
50            	smoothSolver	6.844080e-03	5.883240e-04	8	5.711150e-02	5.022000e-03	7	3.132400e-02	3.037940e-03	7	false	GAMG	1.871660e-02	1.149520e-04	4	true
51            	smoothSolver	6.336230e-03	5.214060e-04	8	5.421050e-02	4.432770e-03	7	2.905410e-02	2.690730e-03	7	false	GAMG	1.777500e-02	1.086440e-04	4	true
52            	smoothSolver	5.777650e-03	4.577210e-04	8	5.066520e-02	3.876580e-03	7	2.678160e-02	2.439000e-03	7	false	GAMG	1.679810e-02	9.868440e-05	4	true
53            	smoothSolver	5.140110e-03	3.985060e-04	8	4.664750e-02	4.602790e-03	6	2.424470e-02	2.189720e-03	7	false	GAMG	1.553750e-02	8.466460e-05	4	true
54            	smoothSolver	4.546540e-03	3.410580e-04	8	4.216290e-02	4.167800e-03	6	2.178120e-02	1.962890e-03	7	false	GAMG	1.427690e-02	7.630210e-05	4	true
55            	smoothSolver	4.005220e-03	3.877250e-04	7	3.789320e-02	2.898860e-03	7	1.984200e-02	1.773790e-03	7	false	GAMG	1.284100e-02	6.937610e-05	4	true
56            	smoothSolver	3.571420e-03	3.255520e-04	7	3.480170e-02	2.709030e-03	7	1.835810e-02	1.551960e-03	7	false	GAMG	1.157490e-02	6.784080e-05	4	true
57            	smoothSolver	3.202340e-03	2.725650e-04	7	3.351050e-02	2.516880e-03	7	1.686670e-02	1.336480e-03	7	false	GAMG	1.086980e-02	6.513080e-05	4	true
58            	smoothSolver	2.852480e-03	2.316170e-04	7	3.269150e-02	3.150400e-03	6	1.526540e-02	1.150400e-03	7	false	GAMG	1.029180e-02	5.919920e-05	4	true
59            	smoothSolver	2.505790e-03	1.993740e-04	7	3.140480e-02	2.897880e-03	6	1.357650e-02	1.350280e-03	6	false	GAMG	9.643550e-03	4.991780e-05	4	true
60            	smoothSolver	2.183890e-03	1.749970e-04	7	2.942980e-02	2.696940e-03	6	1.202580e-02	8.937760e-04	7	false	GAMG	9.051550e-03	4.468350e-05	4	true
61            	smoothSolver	1.907520e-03	1.569750e-04	7	2.754240e-02	2.562200e-03	6	1.068940e-02	7.967010e-04	7	false	GAMG	8.468760e-03	4.090190e-05	4	true
62            	smoothSolver	1.689270e-03	1.430520e-04	7	2.578620e-02	2.448660e-03	6	9.608090e-03	7.183690e-04	7	false	GAMG	7.939990e-03	3.819760e-05	4	true
63            	smoothSolver	1.514270e-03	1.325950e-04	7	2.413910e-02	2.328890e-03	6	8.738010e-03	6.544160e-04	7	false	GAMG	7.527380e-03	3.577220e-05	4	true
64            	smoothSolver	1.390540e-03	1.231440e-04	7	2.252980e-02	2.194770e-03	6	8.099900e-03	6.034600e-04	7	false	GAMG	7.168580e-03	3.348820e-05	4	true
65            	smoothSolver	1.287130e-03	1.139290e-04	7	2.114890e-02	2.054930e-03	6	7.630280e-03	7.587440e-04	6	false	GAMG	6.814380e-03	3.113420e-05	4	true
66            	smoothSolver	1.196240e-03	1.053050e-04	7	1.981860e-02	1.903260e-03	6	7.274530e-03	7.151240e-04	6	false	GAMG	6.477580e-03	2.919110e-05	4	true
67            	smoothSolver	1.111070e-03	9.766770e-05	7	1.845530e-02	1.755840e-03	6	6.871810e-03	6.647980e-04	6	false	GAMG	6.153490e-03	2.752670e-05	4	true
68            	smoothSolver	1.027250e-03	9.129150e-05	7	1.707480e-02	1.609290e-03	6	6.402690e-03	6.143090e-04	6	false	GAMG	5.828040e-03	2.574450e-05	4	true
69            	smoothSolver	9.542290e-04	8.591820e-05	7	1.564280e-02	1.472440e-03	6	5.928720e-03	5.702330e-04	6	false	GAMG	5.500660e-03	2.372490e-05	4	true
70            	smoothSolver	8.880880e-04	8.182630e-05	7	1.426500e-02	1.345670e-03	6	5.491220e-03	5.324450e-04	6	false	GAMG	5.174100e-03	2.164670e-05	4	true
71            	smoothSolver	8.344600e-04	7.855470e-05	7	1.309080e-02	1.240870e-03	6	5.129880e-03	5.024840e-04	6	false	GAMG	4.858800e-03	2.018950e-05	4	true
72            	smoothSolver	7.912590e-04	7.535700e-05	7	1.209910e-02	1.157940e-03	6	4.810640e-03	4.755130e-04	6	false	GAMG	4.600300e-03	1.896310e-05	4	true
73            	smoothSolver	7.549210e-04	7.196980e-05	7	1.130710e-02	1.091150e-03	6	4.522230e-03	4.476420e-04	6	false	GAMG	4.369090e-03	1.791400e-05	4	true
74            	smoothSolver	7.209690e-04	6.835640e-05	7	1.062170e-02	1.032890e-03	6	4.270890e-03	4.209760e-04	6	false	GAMG	4.175410e-03	1.712210e-05	4	true
75            	smoothSolver	6.882630e-04	6.510440e-05	7	1.001880e-02	9.870810e-04	6	4.051900e-03	3.975340e-04	6	false	GAMG	4.011130e-03	1.640100e-05	4	true
76            	smoothSolver	6.585050e-04	6.273020e-05	7	9.501010e-03	9.475290e-04	6	3.857900e-03	3.784770e-04	6	false	GAMG	3.875840e-03	1.573380e-05	4	true
77            	smoothSolver	6.334810e-04	6.096360e-05	7	9.054750e-03	6.770530e-04	7	3.695280e-03	3.636020e-04	6	false	GAMG	3.753720e-03	1.538270e-05	4	true
78            	smoothSolver	6.107340e-04	5.939400e-05	7	8.661390e-03	6.530750e-04	7	3.565910e-03	3.516490e-04	6	false	GAMG	3.633020e-03	1.498470e-05	4	true
79            	smoothSolver	5.870480e-04	5.748920e-05	7	8.323820e-03	6.280710e-04	7	3.430570e-03	3.377940e-04	6	false	GAMG	3.512680e-03	1.452380e-05	4	true
80            	smoothSolver	5.623100e-04	5.530190e-05	7	7.947080e-03	5.992830e-04	7	3.290930e-03	3.230980e-04	6	false	GAMG	3.387740e-03	1.393780e-05	4	true
81            	smoothSolver	5.400710e-04	5.295320e-05	7	7.571550e-03	5.705850e-04	7	3.147150e-03	3.070680e-04	6	false	GAMG	3.272750e-03	1.329980e-05	4	true
82            	smoothSolver	5.200110e-04	5.062800e-05	7	7.187090e-03	5.428830e-04	7	3.013300e-03	2.909640e-04	6	false	GAMG	3.166650e-03	1.279480e-05	4	true
83            	smoothSolver	4.987610e-04	4.832860e-05	7	6.816190e-03	5.146430e-04	7	2.900480e-03	2.776710e-04	6	false	GAMG	3.064320e-03	1.232610e-05	4	true
84            	smoothSolver	4.776480e-04	4.613240e-05	7	6.453610e-03	4.881440e-04	7	2.798820e-03	2.672380e-04	6	false	GAMG	2.964790e-03	1.181950e-05	4	true
85            	smoothSolver	4.623570e-04	4.444570e-05	7	6.144260e-03	4.694870e-04	7	2.720510e-03	2.616600e-04	6	false	GAMG	2.876980e-03	1.125790e-05	4	true
86            	smoothSolver	4.513860e-04	4.325600e-05	7	5.886500e-03	4.572360e-04	7	2.666360e-03	2.593600e-04	6	false	GAMG	2.799460e-03	1.099080e-05	4	true
87            	smoothSolver	4.433160e-04	4.242400e-05	7	5.727110e-03	4.497920e-04	7	2.631410e-03	2.588530e-04	6	false	GAMG	2.733960e-03	1.102080e-05	4	true
88            	smoothSolver	4.370150e-04	4.203060e-05	7	5.650510e-03	4.438990e-04	7	2.610360e-03	2.585170e-04	6	false	GAMG	2.684220e-03	1.132920e-05	4	true
89            	smoothSolver	4.320220e-04	4.163320e-05	7	5.597840e-03	4.357690e-04	7	2.590920e-03	2.563760e-04	6	false	GAMG	2.645190e-03	1.157870e-05	4	true
90            	smoothSolver	4.272920e-04	4.099460e-05	7	5.534070e-03	4.246050e-04	7	2.555000e-03	2.513510e-04	6	false	GAMG	2.617730e-03	1.155020e-05	4	true
91            	smoothSolver	4.201360e-04	4.016060e-05	7	5.449870e-03	4.115970e-04	7	2.511490e-03	2.447880e-04	6	false	GAMG	2.599140e-03	1.118810e-05	4	true
92            	smoothSolver	4.116400e-04	3.912200e-05	7	5.352180e-03	3.997740e-04	7	2.451540e-03	2.371230e-04	6	false	GAMG	2.577290e-03	1.097950e-05	4	true
93            	smoothSolver	4.004550e-04	3.818100e-05	7	5.241260e-03	3.898190e-04	7	2.385110e-03	2.290680e-04	6	false	GAMG	2.537500e-03	1.122200e-05	4	true
94            	smoothSolver	3.884180e-04	3.726100e-05	7	5.105760e-03	3.788800e-04	7	2.323380e-03	2.220830e-04	6	false	GAMG	2.475970e-03	1.182650e-05	4	true
95            	smoothSolver	3.789830e-04	3.645180e-05	7	4.972930e-03	3.668630e-04	7	2.280990e-03	2.169260e-04	6	false	GAMG	2.402020e-03	1.254840e-05	4	true
96            	smoothSolver	3.702720e-04	3.590530e-05	7	4.819160e-03	4.804030e-04	6	2.251620e-03	2.131910e-04	6	false	GAMG	2.344370e-03	1.303270e-05	4	true
97            	smoothSolver	3.665190e-04	3.549370e-05	7	4.699540e-03	4.664410e-04	6	2.229140e-03	2.093580e-04	6	false	GAMG	2.301710e-03	1.305860e-05	4	true
98            	smoothSolver	3.654610e-04	3.512780e-05	7	4.590120e-03	4.501140e-04	6	2.214500e-03	2.061550e-04	6	false	GAMG	2.273970e-03	1.283680e-05	4	true
99            	smoothSolver	3.674210e-04	3.498370e-05	7	4.482460e-03	4.359580e-04	6	2.219330e-03	2.045230e-04	6	false	GAMG	2.266860e-03	1.236610e-05	4	true
100           	smoothSolver	3.714460e-04	3.486160e-05	7	4.401670e-03	4.281910e-04	6	2.235780e-03	2.056480e-04	6	false	GAMG	2.271510e-03	1.185180e-05	4	true
101           	smoothSolver	3.750250e-04	3.475390e-05	7	4.331300e-03	4.258630e-04	6	2.255320e-03	2.086630e-04	6	false	GAMG	2.287370e-03	1.153000e-05	4	true
102           	smoothSolver	3.768350e-04	3.471110e-05	7	4.227080e-03	4.211530e-04	6	2.263060e-03	2.106890e-04	6	false	GAMG	2.307180e-03	1.129430e-05	4	true
103           	smoothSolver	3.772090e-04	3.470850e-05	7	4.106800e-03	3.042780e-04	7	2.261470e-03	2.120720e-04	6	false	GAMG	2.328850e-03	1.113060e-05	4	true
104           	smoothSolver	3.776930e-04	3.511590e-05	7	3.976580e-03	2.980010e-04	7	2.271070e-03	2.157070e-04	6	false	GAMG	2.355600e-03	1.111500e-05	4	true
105           	smoothSolver	3.800190e-04	3.593450e-05	7	3.871810e-03	2.957520e-04	7	2.290980e-03	2.213180e-04	6	false	GAMG	2.397030e-03	1.139060e-05	4	true
106           	smoothSolver	3.850560e-04	3.714120e-05	7	3.831690e-03	2.986910e-04	7	2.337070e-03	2.289130e-04	6	false	GAMG	2.436050e-03	1.175080e-05	4	true
107           	smoothSolver	3.919730e-04	3.842590e-05	7	3.832360e-03	3.041300e-04	7	2.394910e-03	2.384500e-04	6	false	GAMG	2.476050e-03	1.211270e-05	4	true
108           	smoothSolver	3.986690e-04	3.955090e-05	7	3.846460e-03	3.086580e-04	7	2.453110e-03	1.823530e-04	7	false	GAMG	2.508490e-03	1.269110e-05	4	true
109           	smoothSolver	4.033410e-04	3.042230e-05	8	3.854660e-03	3.112100e-04	7	2.494250e-03	1.884440e-04	7	false	GAMG	2.530170e-03	1.310570e-05	4	true
110           	smoothSolver	4.052000e-04	3.059220e-05	8	3.839760e-03	3.109480e-04	7	2.518070e-03	1.931690e-04	7	false	GAMG	2.539560e-03	1.357850e-05	4	true
111           	smoothSolver	4.065040e-04	3.049450e-05	8	3.824570e-03	3.090260e-04	7	2.524800e-03	1.952600e-04	7	false	GAMG	2.539620e-03	1.418770e-05	4	true
112           	smoothSolver	4.111120e-04	4.079520e-05	7	3.846370e-03	3.098760e-04	7	2.536440e-03	1.969390e-04	7	false	GAMG	2.537120e-03	1.501710e-05	4	true
113           	smoothSolver	4.190440e-04	4.146900e-05	7	3.924680e-03	3.155540e-04	7	2.547960e-03	1.987410e-04	7	false	GAMG	2.543420e-03	1.544430e-05	4	true
114           	smoothSolver	4.283010e-04	4.270030e-05	7	4.042410e-03	3.277390e-04	7	2.554040e-03	1.992070e-04	7	false	GAMG	2.557850e-03	1.519570e-05	4	true
115           	smoothSolver	4.356590e-04	3.306730e-05	8	4.160800e-03	3.401690e-04	7	2.545980e-03	1.981540e-04	7	false	GAMG	2.544670e-03	1.434640e-05	4	true
116           	smoothSolver	4.373860e-04	3.363590e-05	8	4.248820e-03	3.501820e-04	7	2.519040e-03	1.974840e-04	7	false	GAMG	2.513290e-03	1.343260e-05	4	true
117           	smoothSolver	4.332720e-04	3.366570e-05	8	4.293980e-03	3.557560e-04	7	2.478260e-03	1.966030e-04	7	false	GAMG	2.472110e-03	1.283230e-05	4	true
118           	smoothSolver	4.238860e-04	3.339520e-05	8	4.297700e-03	3.578290e-04	7	2.426550e-03	1.933730e-04	7	false	GAMG	2.443070e-03	1.248560e-05	4	true
119           	smoothSolver	4.130030e-04	3.304220e-05	8	4.268270e-03	3.571120e-04	7	2.370030e-03	1.883570e-04	7	false	GAMG	2.406860e-03	1.255180e-05	4	true
120           	smoothSolver	4.023410e-04	3.265430e-05	8	4.203350e-03	3.561800e-04	7	2.321650e-03	1.838840e-04	7	false	GAMG	2.340310e-03	1.289350e-05	4	true
121           	smoothSolver	3.943790e-04	3.235950e-05	8	4.136170e-03	3.538250e-04	7	2.279320e-03	1.813320e-04	7	false	GAMG	2.268980e-03	1.328080e-05	4	true
122           	smoothSolver	3.904740e-04	3.219800e-05	8	4.080510e-03	3.477890e-04	7	2.252040e-03	1.801500e-04	7	false	GAMG	2.214030e-03	1.338930e-05	4	true
123           	smoothSolver	3.901560e-04	3.213370e-05	8	4.022570e-03	3.377590e-04	7	2.241870e-03	1.807090e-04	7	false	GAMG	2.170180e-03	1.307220e-05	4	true
124           	smoothSolver	3.907480e-04	3.196350e-05	8	3.952040e-03	3.262570e-04	7	2.236750e-03	1.818990e-04	7	false	GAMG	2.137210e-03	1.251010e-05	4	true
125           	smoothSolver	3.892790e-04	3.159800e-05	8	3.837470e-03	3.141750e-04	7	2.220060e-03	1.825810e-04	7	false	GAMG	2.107970e-03	1.184610e-05	4	true
126           	smoothSolver	3.849350e-04	3.097920e-05	8	3.694020e-03	3.014230e-04	7	2.183580e-03	1.814650e-04	7	false	GAMG	2.076570e-03	1.125590e-05	4	true
127           	smoothSolver	3.789990e-04	3.022410e-05	8	3.533480e-03	2.887760e-04	7	2.131590e-03	1.789440e-04	7	false	GAMG	2.052430e-03	1.123230e-05	4	true
128           	smoothSolver	3.722720e-04	2.941260e-05	8	3.386630e-03	2.777360e-04	7	2.083360e-03	1.752130e-04	7	false	GAMG	2.044710e-03	1.188020e-05	4	true
129           	smoothSolver	3.651510e-04	2.851860e-05	8	3.282630e-03	2.692470e-04	7	2.060360e-03	1.722080e-04	7	false	GAMG	2.047850e-03	1.260710e-05	4	true
130           	smoothSolver	3.606270e-04	2.781540e-05	8	3.222050e-03	2.626230e-04	7	2.049810e-03	1.707760e-04	7	false	GAMG	2.058890e-03	1.297040e-05	4	true
131           	smoothSolver	3.584620e-04	2.729730e-05	8	3.180260e-03	2.579530e-04	7	2.048930e-03	1.704410e-04	7	false	GAMG	2.064140e-03	1.306900e-05	4	true
132           	smoothSolver	3.562790e-04	2.696850e-05	8	3.136330e-03	2.548640e-04	7	2.046420e-03	1.695510e-04	7	false	GAMG	2.058040e-03	1.303650e-05	4	true
133           	smoothSolver	3.524450e-04	2.683010e-05	8	3.071860e-03	2.517040e-04	7	2.042080e-03	1.691790e-04	7	false	GAMG	2.050910e-03	1.311580e-05	4	true
134           	smoothSolver	3.478390e-04	2.684260e-05	8	2.998660e-03	2.486560e-04	7	2.033250e-03	1.684540e-04	7	false	GAMG	2.034410e-03	1.339010e-05	4	true
135           	smoothSolver	3.419280e-04	2.692600e-05	8	2.915500e-03	2.450640e-04	7	2.010350e-03	1.665240e-04	7	false	GAMG	2.005220e-03	1.358850e-05	4	true
136           	smoothSolver	3.372870e-04	2.688240e-05	8	2.828910e-03	2.418080e-04	7	1.978680e-03	1.642480e-04	7	false	GAMG	1.971020e-03	1.345530e-05	4	true
137           	smoothSolver	3.338150e-04	2.677720e-05	8	2.767300e-03	2.392390e-04	7	1.950350e-03	1.621700e-04	7	false	GAMG	1.944360e-03	1.309350e-05	4	true
138           	smoothSolver	3.304220e-04	2.658470e-05	8	2.722900e-03	2.369250e-04	7	1.926720e-03	1.606580e-04	7	false	GAMG	1.919730e-03	1.260870e-05	4	true
139           	smoothSolver	3.280270e-04	2.634460e-05	8	2.688420e-03	2.355730e-04	7	1.904400e-03	1.591990e-04	7	false	GAMG	1.905980e-03	1.198780e-05	4	true
140           	smoothSolver	3.273900e-04	2.604730e-05	8	2.677120e-03	2.355650e-04	7	1.890580e-03	1.594550e-04	7	false	GAMG	1.898710e-03	1.128360e-05	4	true
141           	smoothSolver	3.273880e-04	2.589160e-05	8	2.684450e-03	2.366500e-04	7	1.891720e-03	1.611180e-04	7	false	GAMG	1.905290e-03	1.068000e-05	4	true
142           	smoothSolver	3.284310e-04	2.584780e-05	8	2.727870e-03	2.411790e-04	7	1.900730e-03	1.631770e-04	7	false	GAMG	1.917010e-03	1.048520e-05	4	true
143           	smoothSolver	3.296360e-04	2.585040e-05	8	2.803990e-03	2.494440e-04	7	1.910780e-03	1.641150e-04	7	false	GAMG	1.938680e-03	1.050250e-05	4	true
144           	smoothSolver	3.286850e-04	2.601010e-05	8	2.896310e-03	2.582390e-04	7	1.921040e-03	1.644610e-04	7	false	GAMG	1.967040e-03	1.063390e-05	4	true
145           	smoothSolver	3.273960e-04	2.617530e-05	8	2.990540e-03	2.665000e-04	7	1.929960e-03	1.639480e-04	7	false	GAMG	1.984150e-03	1.072940e-05	4	true
146           	smoothSolver	3.249180e-04	2.617950e-05	8	3.069750e-03	2.729500e-04	7	1.928090e-03	1.619160e-04	7	false	GAMG	1.985580e-03	1.055470e-05	4	true
147           	smoothSolver	3.210990e-04	2.595970e-05	8	3.120730e-03	2.762020e-04	7	1.914240e-03	1.591780e-04	7	false	GAMG	1.974940e-03	1.033890e-05	4	true
148           	smoothSolver	3.150830e-04	2.555940e-05	8	3.155010e-03	2.764320e-04	7	1.889590e-03	1.546760e-04	7	false	GAMG	1.958160e-03	1.032680e-05	4	true
149           	smoothSolver	3.084240e-04	2.500320e-05	8	3.156680e-03	2.737180e-04	7	1.849120e-03	1.486530e-04	7	false	GAMG	1.935650e-03	1.051250e-05	4	true
150           	smoothSolver	3.024000e-04	2.447920e-05	8	3.129510e-03	2.704130e-04	7	1.802680e-03	1.422400e-04	7	false	GAMG	1.906810e-03	1.093870e-05	4	true
151           	smoothSolver	2.980760e-04	2.409650e-05	8	3.085800e-03	2.661020e-04	7	1.759120e-03	1.379650e-04	7	false	GAMG	1.876430e-03	1.126450e-05	4	true
152           	smoothSolver	2.949770e-04	2.371870e-05	8	3.042180e-03	2.612770e-04	7	1.725110e-03	1.354590e-04	7	false	GAMG	1.843220e-03	1.138260e-05	4	true
153           	smoothSolver	2.917080e-04	2.312200e-05	8	3.010780e-03	2.566690e-04	7	1.696570e-03	1.330290e-04	7	false	GAMG	1.809500e-03	1.127270e-05	4	true
154           	smoothSolver	2.876290e-04	2.234930e-05	8	2.982500e-03	2.536680e-04	7	1.674670e-03	1.300910e-04	7	false	GAMG	1.780070e-03	1.100760e-05	4	true
155           	smoothSolver	2.816770e-04	2.149970e-05	8	2.956860e-03	2.518320e-04	7	1.647410e-03	1.271850e-04	7	false	GAMG	1.750170e-03	1.051140e-05	4	true
156           	smoothSolver	2.743180e-04	2.079310e-05	8	2.938700e-03	2.505690e-04	7	1.621430e-03	1.252620e-04	7	false	GAMG	1.721040e-03	9.800910e-06	4	true
157           	smoothSolver	2.675110e-04	2.025250e-05	8	2.930950e-03	2.513220e-04	7	1.596990e-03	1.251540e-04	7	false	GAMG	1.696870e-03	8.946150e-06	4	true
158           	smoothSolver	2.618440e-04	1.989760e-05	8	2.920340e-03	2.526920e-04	7	1.579760e-03	1.255580e-04	7	false	GAMG	1.684680e-03	8.348450e-06	4	true
159           	smoothSolver	2.576590e-04	1.974490e-05	8	2.905570e-03	2.523810e-04	7	1.564010e-03	1.254840e-04	7	false	GAMG	1.670650e-03	8.075430e-06	4	true
160           	smoothSolver	2.546930e-04	1.970420e-05	8	2.880390e-03	2.489910e-04	7	1.550470e-03	1.250910e-04	7	false	GAMG	1.647830e-03	8.035000e-06	4	true
161           	smoothSolver	2.528540e-04	1.961690e-05	8	2.844370e-03	2.442050e-04	7	1.542850e-03	1.239470e-04	7	false	GAMG	1.621970e-03	8.087630e-06	4	true
162           	smoothSolver	2.502060e-04	1.943520e-05	8	2.785480e-03	2.376520e-04	7	1.533450e-03	1.222860e-04	7	false	GAMG	1.595550e-03	8.076010e-06	4	true
163           	smoothSolver	2.474120e-04	1.921970e-05	8	2.716100e-03	2.283830e-04	7	1.511650e-03	1.192480e-04	7	false	GAMG	1.571360e-03	8.006810e-06	4	true
164           	smoothSolver	2.453520e-04	1.900410e-05	8	2.643390e-03	2.185950e-04	7	1.483710e-03	1.156720e-04	7	false	GAMG	1.547300e-03	8.024910e-06	4	true
165           	smoothSolver	2.441920e-04	1.886570e-05	8	2.569400e-03	2.103780e-04	7	1.460040e-03	1.127950e-04	7	false	GAMG	1.524620e-03	8.370490e-06	4	true
166           	smoothSolver	2.448410e-04	1.900880e-05	8	2.504750e-03	2.048590e-04	7	1.460690e-03	1.119120e-04	7	false	GAMG	1.520770e-03	8.776250e-06	4	true
167           	smoothSolver	2.469480e-04	1.931660e-05	8	2.462720e-03	2.009240e-04	7	1.475090e-03	1.126610e-04	7	false	GAMG	1.530760e-03	8.914200e-06	4	true
168           	smoothSolver	2.496830e-04	1.956420e-05	8	2.427960e-03	1.984330e-04	7	1.495610e-03	1.146420e-04	7	false	GAMG	1.551030e-03	8.687680e-06	4	true
169           	smoothSolver	2.520500e-04	1.977210e-05	8	2.397970e-03	1.972510e-04	7	1.518300e-03	1.173960e-04	7	false	GAMG	1.576290e-03	8.347640e-06	4	true
170           	smoothSolver	2.542100e-04	1.993830e-05	8	2.375330e-03	1.957090e-04	7	1.542910e-03	1.211290e-04	7	false	GAMG	1.598120e-03	8.073120e-06	4	true
171           	smoothSolver	2.562520e-04	2.018100e-05	8	2.353820e-03	1.938690e-04	7	1.575890e-03	1.253850e-04	7	false	GAMG	1.615870e-03	7.917010e-06	4	true
172           	smoothSolver	2.582830e-04	2.044040e-05	8	2.332760e-03	1.919720e-04	7	1.613580e-03	1.298250e-04	7	false	GAMG	1.630170e-03	7.889440e-06	4	true
173           	smoothSolver	2.598010e-04	2.067870e-05	8	2.305050e-03	1.901220e-04	7	1.644070e-03	1.345910e-04	7	false	GAMG	1.646620e-03	7.940250e-06	4	true
174           	smoothSolver	2.620990e-04	2.099350e-05	8	2.284920e-03	1.902580e-04	7	1.683040e-03	1.393630e-04	7	false	GAMG	1.664740e-03	8.338990e-06	4	true
175           	smoothSolver	2.676440e-04	2.152400e-05	8	2.297720e-03	1.926620e-04	7	1.728400e-03	1.451610e-04	7	false	GAMG	1.692040e-03	9.211070e-06	4	true
176           	smoothSolver	2.764860e-04	2.214210e-05	8	2.334410e-03	1.984970e-04	7	1.777320e-03	1.504060e-04	7	false	GAMG	1.724230e-03	1.024710e-05	4	true
177           	smoothSolver	2.864930e-04	2.268860e-05	8	2.407390e-03	2.054540e-04	7	1.831600e-03	1.530100e-04	7	false	GAMG	1.756930e-03	1.111830e-05	4	true
178           	smoothSolver	2.957320e-04	2.311890e-05	8	2.495550e-03	2.118450e-04	7	1.870600e-03	1.528870e-04	7	false	GAMG	1.776140e-03	1.159690e-05	4	true
179           	smoothSolver	3.025580e-04	2.339770e-05	8	2.564980e-03	2.165920e-04	7	1.885360e-03	1.508680e-04	7	false	GAMG	1.785970e-03	1.153030e-05	4	true
180           	smoothSolver	3.045270e-04	2.347720e-05	8	2.621520e-03	2.198880e-04	7	1.880910e-03	1.479210e-04	7	false	GAMG	1.782590e-03	1.090370e-05	4	true
181           	smoothSolver	3.026410e-04	2.358270e-05	8	2.657010e-03	2.225250e-04	7	1.857610e-03	1.447290e-04	7	false	GAMG	1.772260e-03	9.909880e-06	4	true
182           	smoothSolver	2.993300e-04	2.382890e-05	8	2.681810e-03	2.256820e-04	7	1.815820e-03	1.418330e-04	7	false	GAMG	1.753720e-03	9.036280e-06	4	true
183           	smoothSolver	2.963820e-04	2.417760e-05	8	2.711690e-03	2.308130e-04	7	1.772750e-03	1.399840e-04	7	false	GAMG	1.731780e-03	8.460380e-06	4	true
184           	smoothSolver	2.947260e-04	2.464210e-05	8	2.767550e-03	2.375230e-04	7	1.739100e-03	1.400950e-04	7	false	GAMG	1.717290e-03	8.264610e-06	4	true
185           	smoothSolver	2.940630e-04	2.522050e-05	8	2.833190e-03	2.439150e-04	7	1.727490e-03	1.423020e-04	7	false	GAMG	1.703860e-03	8.353220e-06	4	true
186           	smoothSolver	2.950910e-04	2.575660e-05	8	2.880850e-03	2.487520e-04	7	1.730330e-03	1.451650e-04	7	false	GAMG	1.701860e-03	8.572030e-06	4	true
187           	smoothSolver	2.972100e-04	2.618930e-05	8	2.903320e-03	2.514350e-04	7	1.728570e-03	1.473190e-04	7	false	GAMG	1.702760e-03	8.797630e-06	4	true
188           	smoothSolver	3.003710e-04	2.636110e-05	8	2.895280e-03	2.518690e-04	7	1.729740e-03	1.487200e-04	7	false	GAMG	1.708630e-03	8.857860e-06	4	true
189           	smoothSolver	3.037120e-04	2.637960e-05	8	2.878170e-03	2.488980e-04	7	1.733430e-03	1.492470e-04	7	false	GAMG	1.717750e-03	8.787910e-06	4	true
190           	smoothSolver	3.065590e-04	2.623710e-05	8	2.831990e-03	2.425480e-04	7	1.740920e-03	1.489810e-04	7	false	GAMG	1.741230e-03	8.656140e-06	4	true