# Force and moment coefficients
# dragDir     : (1.000000e+00 0.000000e+00 0.000000e+00)
# sideDir     : (0.000000e+00 1.000000e+00 0.000000e+00)
# liftDir     : (0.000000e+00 0.000000e+00 1.000000e+00)
# rollAxis    : (1.000000e+00 0.000000e+00 0.000000e+00)
# pitchAxis   : (0.000000e+00 1.000000e+00 0.000000e+00)
# yawAxis     : (0.000000e+00 0.000000e+00 1.000000e+00)
# magUInf     : 2.000000e+01
# lRef        : 1.420000e+00
# Aref        : 7.500000e-01
# CofR        : (7.200000e-01 0.000000e+00 0.000000e+00)
#
# Time        	Cd            	Cd(f)         	Cd(r)         	Cl            	Cl(f)         	Cl(r)         	CmPitch       	CmRoll        	CmYaw         	Cs            	Cs(f)         	Cs(r)         
1             	2.111318e-03	1.061376e-03	1.049942e-03	5.401068e-05	7.703039e-05	-2.301971e-05	5.002505e-05	5.717034e-06	-5.877966e-05	-2.565645e-05	-7.160789e-05	4.595144e-05
2             	2.432400e-03	1.224651e-03	1.207749e-03	1.421340e-04	1.698844e-04	-2.775037e-05	9.881738e-05	8.450708e-06	-5.480643e-05	-5.635149e-05	-8.298217e-05	2.663068e-05
3             	2.665545e-03	1.344002e-03	1.321543e-03	2.269698e-04	2.584583e-04	-3.148844e-05	1.449733e-04	1.122959e-05	-5.317815e-05	-7.630474e-05	-9.133052e-05	1.502578e-05
4             	2.805924e-03	1.416034e-03	1.389890e-03	2.906392e-04	3.245832e-04	-3.394394e-05	1.792636e-04	1.307185e-05	-5.221171e-05	-8.872250e-05	-9.657296e-05	7.850461e-06
5             	2.869932e-03	1.449334e-03	1.420599e-03	3.421104e-04	3.774367e-04	-3.532633e-05	2.063815e-04	1.436763e-05	-5.114012e-05	-9.620304e-05	-9.924164e-05	3.038601e-06
6             	2.877273e-03	1.454809e-03	1.422464e-03	3.998777e-04	4.358852e-04	-3.600755e-05	2.359464e-04	1.617280e-05	-4.979292e-05	-1.004274e-04	-1.000066e-04	-4.207939e-07
7             	2.839011e-03	1.437373e-03	1.401639e-03	4.561286e-04	4.922068e-04	-3.607824e-05	2.641425e-04	1.786688e-05	-4.922231e-05	-1.001994e-04	-9.932201e-05	-8.773881e-07
8             	2.767997e-03	1.403341e-03	1.364656e-03	5.075117e-04	5.431973e-04	-3.568557e-05	2.894414e-04	1.934276e-05	-5.025398e-05	-9.482957e-05	-9.766876e-05	2.839197e-06
9             	2.697702e-03	1.369065e-03	1.328636e-03	5.465068e-04	5.817427e-04	-3.523589e-05	3.084893e-04	2.021450e-05	-5.042793e-05	-9.064196e-05	-9.574891e-05	5.106945e-06
10            	2.625647e-03	1.333473e-03	1.292174e-03	5.730530e-04	6.077071e-04	-3.465412e-05	3.211806e-04	2.064966e-05	-4.976937e-05	-8.769157e-05	-9.361516e-05	5.923590e-06
11            	2.556933e-03	1.298913e-03	1.258020e-03	5.806747e-04	6.146747e-04	-3.400004e-05	3.243374e-04	2.044646e-05	-4.834181e-05	-8.613997e-05	-9.141180e-05	5.271823e-06
12            	2.488511e-03	1.264006e-03	1.224505e-03	5.806118e-04	6.139024e-04	-3.329061e-05	3.235965e-04	1.975035e-05	-4.974436e-05	-7.913610e-05	-8.931241e-05	1.017631e-05
13            	2.434213e-03	1.236080e-03	1.198134e-03	5.755951e-04	6.083346e-04	-3.273955e-05	3.205371e-04	1.897290e-05	-5.083951e-05	-7.358630e-05	-8.763266e-05	1.404636e-05
14            	2.392662e-03	1.214656e-03	1.178005e-03	5.735857e-04	6.059096e-04	-3.232392e-05	3.191168e-04	1.832546e-05	-5.174599e-05	-6.923882e-05	-8.636540e-05	1.712658e-05
15            	2.360618e-03	1.198202e-03	1.162416e-03	5.723016e-04	6.043208e-04	-3.201922e-05	3.181700e-04	1.789303e-05	-5.202612e-05	-6.671056e-05	-8.538140e-05	1.867084e-05
16            	2.334907e-03	1.185016e-03	1.149891e-03	5.747838e-04	6.065853e-04	-3.180150e-05	3.191934e-04	1.756223e-05	-5.311970e-05	-6.305054e-05	-8.464497e-05	2.159443e-05
17            	2.314849e-03	1.174923e-03	1.139926e-03	5.786103e-04	6.102760e-04	-3.166573e-05	3.209709e-04	1.749868e-05	-5.401570e-05	-6.024742e-05	-8.413941e-05	2.389199e-05
18            	2.312424e-03	1.173908e-03	1.138516e-03	5.903676e-04	6.221316e-04	-3.176391e-05	3.269477e-04	1.769599e-05	-5.354971e-05	-6.100712e-05	-8.405327e-05	2.304614e-05
19            	2.303861e-03	1.170072e-03	1.133789e-03	6.033192e-04	6.351206e-04	-3.180142e-05	3.334610e-04	1.814137e-05	-5.430145e-05	-5.932285e-05	-8.396287e-05	2.464003e-05
20            	2.304873e-03	1.171046e-03	1.133827e-03	6.184460e-04	6.503928e-04	-3.194687e-05	3.411699e-04	1.860984e-05	-5.361521e-05	-6.083368e-05	-8.403204e-05	2.319837e-05
21            	2.303898e-03	1.171280e-03	1.132618e-03	6.372057e-04	6.693062e-04	-3.210044e-05	3.507033e-04	1.933093e-05	-5.375628e-05	-6.075861e-05	-8.413558e-05	2.337697e-05
22            	2.306136e-03	1.172979e-03	1.133156e-03	6.549986e-04	6.872753e-04	-3.227672e-05	3.597760e-04	1.991133e-05	-5.351313e-05	-6.153913e-05	-8.428270e-05	2.274357e-05
23            	2.306219e-03	1.173719e-03	1.132500e-03	6.727265e-04	7.051578e-04	-3.243135e-05	3.687946e-04	2.060992e-05	-5.382244e-05	-6.125106e-05	-8.444796e-05	2.319691e-05
24            	2.310154e-03	1.176293e-03	1.133860e-03	6.898533e-04	7.224732e-04	-3.261993e-05	3.775466e-04	2.121661e-05	-5.338520e-05	-6.248816e-05	-8.462928e-05	2.214112e-05
25            	2.311105e-03	1.177480e-03	1.133625e-03	7.070462e-04	7.398264e-04	-3.278020e-05	3.863033e-04	2.192766e-05	-5.363852e-05	-6.234370e-05	-8.481037e-05	2.246667e-05
26            	2.315473e-03	1.180261e-03	1.135212e-03	7.236920e-04	7.566587e-04	-3.296674e-05	3.948127e-04	2.252435e-05	-5.317350e-05	-6.364558e-05	-8.499629e-05	2.135071e-05
27            	2.315917e-03	1.181133e-03	1.134784e-03	7.393107e-04	7.724170e-04	-3.310632e-05	4.027617e-04	2.317450e-05	-5.344066e-05	-6.341550e-05	-8.514841e-05	2.173291e-05
28            	2.320229e-03	1.183810e-03	1.136419e-03	7.539881e-04	7.872670e-04	-3.327889e-05	4.102729e-04	2.369522e-05	-5.298795e-05	-6.466764e-05	-8.532177e-05	2.065413e-05
29            	2.320544e-03	1.184521e-03	1.136023e-03	7.673409e-04	8.007415e-04	-3.340058e-05	4.170710e-04	2.424884e-05	-5.325562e-05	-6.439302e-05	-8.545213e-05	2.105911e-05
30            	2.324474e-03	1.186951e-03	1.137523e-03	7.803962e-04	8.139510e-04	-3.355483e-05	4.237529e-04	2.471368e-05	-5.279384e-05	-6.559881e-05	-8.559324e-05	1.999444e-05
31            	2.324607e-03	1.187521e-03	1.137086e-03	7.923260e-04	8.259889e-04	-3.366288e-05	4.298259e-04	2.521759e-05	-5.311747e-05	-6.518174e-05	-8.570834e-05	2.052660e-05
32            	2.328282e-03	1.189750e-03	1.138532e-03	8.035131e-04	8.373128e-04	-3.379966e-05	4.355562e-04	2.560912e-05	-5.270682e-05	-6.625628e-05	-8.583496e-05	1.957867e-05
33            	2.328289e-03	1.190177e-03	1.138111e-03	8.135293e-04	8.474200e-04	-3.389075e-05	4.406554e-04	2.603299e-05	-5.301974e-05	-6.581933e-05	-8.592941e-05	2.011008e-05
34            	2.331578e-03	1.192127e-03	1.139451e-03	8.226597e-04	8.566680e-04	-3.400837e-05	4.453382e-04	2.633771e-05	-5.264513e-05	-6.677342e-05	-8.603184e-05	1.925842e-05
35            	2.331506e-03	1.192436e-03	1.139069e-03	8.308420e-04	8.649267e-04	-3.408470e-05	4.495057e-04	2.668353e-05	-5.297469e-05	-6.627822e-05	-8.611380e-05	1.983557e-05
36            	2.334349e-03	1.194103e-03	1.140247e-03	8.383498e-04	8.725332e-04	-3.418332e-05	4.533582e-04	2.692813e-05	-5.262098e-05	-6.714439e-05	-8.619317e-05	1.904878e-05
37            	2.334177e-03	1.194306e-03	1.139870e-03	8.450975e-04	8.793436e-04	-3.424606e-05	4.567948e-04	2.721802e-05	-5.294620e-05	-6.662872e-05	-8.626056e-05	1.963184e-05
38            	2.336748e-03	1.195765e-03	1.140983e-03	8.509688e-04	8.852978e-04	-3.432899e-05	4.598134e-04	2.739092e-05	-5.265784e-05	-6.734123e-05	-8.632845e-05	1.898723e-05
39            	2.336479e-03	1.195855e-03	1.140625e-03	8.562265e-04	8.906045e-04	-3.437801e-05	4.624913e-04	2.761500e-05	-5.298371e-05	-6.679986e-05	-8.638364e-05	1.958378e-05
40            	2.338620e-03	1.197055e-03	1.141566e-03	8.608804e-04	8.953255e-04	-3.444510e-05	4.648853e-04	2.774457e-05	-5.271261e-05	-6.743602e-05	-8.643062e-05	1.899460e-05
41            	2.338362e-03	1.197119e-03	1.141243e-03	8.652240e-04	8.997102e-04	-3.448625e-05	4.670982e-04	2.793800e-05	-5.304767e-05	-6.686882e-05	-8.648208e-05	1.961325e-05
42            	2.340258e-03	1.198155e-03	1.142103e-03	8.688194e-04	9.033607e-04	-3.454125e-05	4.689510e-04	2.802614e-05	-5.282138e-05	-6.739906e-05	-8.652091e-05	1.912184e-05
43            	2.339916e-03	1.198141e-03	1.141776e-03	8.722551e-04	9.068278e-04	-3.457271e-05	4.707002e-04	2.818243e-05	-5.314999e-05	-6.682531e-05	-8.656264e-05	1.973734e-05
44            	2.341558e-03	1.199011e-03	1.142547e-03	8.749000e-04	9.095170e-04	-3.461706e-05	4.720670e-04	2.823182e-05	-5.295984e-05	-6.726394e-05	-8.659181e-05	1.932787e-05
45            	2.341245e-03	1.198981e-03	1.142264e-03	8.775915e-04	9.122338e-04	-3.464235e-05	4.734381e-04	2.835885e-05	-5.328944e-05	-6.668477e-05	-8.663182e-05	1.994706e-05
46            	2.342618e-03	1.199700e-03	1.142919e-03	8.796269e-04	9.143042e-04	-3.467730e-05	4.744908e-04	2.839038e-05	-5.310322e-05	-6.709273e-05	-8.664958e-05	1.955685e-05
47            	2.342307e-03	1.199660e-03	1.142647e-03	8.819123e-04	9.166104e-04	-3.469813e-05	4.756543e-04	2.850620e-05	-5.342311e-05	-6.652578e-05	-8.668600e-05	2.016022e-05
48            	2.343554e-03	1.200287e-03	1.143267e-03	8.833063e-04	9.180328e-04	-3.472652e-05	4.763797e-04	2.850962e-05	-5.327394e-05	-6.685506e-05	-8.670147e-05	1.984641e-05
49            	2.343216e-03	1.200207e-03	1.143009e-03	8.850156e-04	9.197573e-04	-3.474167e-05	4.772495e-04	2.859931e-05	-5.358345e-05	-6.629989e-05	-8.673339e-05	2.043350e-05
50            	2.344224e-03	1.200703e-03	1.143521e-03	8.859995e-04	9.207625e-04	-3.476306e-05	4.777628e-04	2.859128e-05	-5.343032e-05	-6.661606e-05	-8.673835e-05	2.012229e-05
51            	2.343959e-03	1.200659e-03	1.143300e-03	8.875307e-04	9.223077e-04	-3.477701e-05	4.785424e-04	2.867980e-05	-5.373129e-05	-6.608162e-05	-8.677210e-05	2.069048e-05
52            	2.344881e-03	1.201103e-03	1.143779e-03	8.882238e-04	9.230182e-04	-3.479438e-05	4.789063e-04	2.866209e-05	-5.359040e-05	-6.637077e-05	-8.677578e-05	2.040501e-05
53            	2.344619e-03	1.201053e-03	1.143566e-03	8.895500e-04	9.243556e-04	-3.480559e-05	4.795806e-04	2.874316e-05	-5.387041e-05	-6.587209e-05	-8.680646e-05	2.093437e-05
54            	2.345455e-03	1.201443e-03	1.144012e-03	8.899858e-04	9.248055e-04	-3.481978e-05	4.798127e-04	2.871584e-05	-5.373619e-05	-6.614339e-05	-8.680788e-05	2.066449e-05
55            	2.345266e-03	1.201425e-03	1.143841e-03	8.911482e-04	9.259784e-04	-3.483022e-05	4.804043e-04	2.879181e-05	-5.400210e-05	-6.567735e-05	-8.684077e-05	2.116342e-05
56            	2.345950e-03	1.201739e-03	1.144211e-03	8.914477e-04	9.262884e-04	-3.484067e-05	4.805645e-04	2.876416e-05	-5.385445e-05	-6.596286e-05	-8.683587e-05	2.087302e-05
57            	2.345758e-03	1.201719e-03	1.144038e-03	8.925348e-04	9.273847e-04	-3.484985e-05	4.811173e-04	2.884057e-05	-5.410383e-05	-6.552549e-05	-8.686658e-05	2.134109e-05
58            	2.346378e-03	1.201989e-03	1.144390e-03	8.925731e-04	9.274309e-04	-3.485778e-05	4.811443e-04	2.879966e-05	-5.397485e-05	-6.577281e-05	-8.686126e-05	2.108845e-05
59            	2.346168e-03	1.201946e-03	1.144222e-03	8.933983e-04	9.282627e-04	-3.486442e-05	4.815636e-04	2.886222e-05	-5.421109e-05	-6.535602e-05	-8.688910e-05	2.153308e-05
60            	2.346639e-03	1.202139e-03	1.144500e-03	8.933046e-04	9.281736e-04	-3.486903e-05	4.815213e-04	2.881933e-05	-5.406859e-05	-6.561581e-05	-8.687649e-05	2.126068e-05
61            	2.346482e-03	1.202128e-03	1.144354e-03	8.941514e-04	9.290276e-04	-3.487622e-05	4.819519e-04	2.888699e-05	-5.429527e-05	-6.522124e-05	-8.690590e-05	2.168465e-05
62            	2.346920e-03	1.202300e-03	1.144621e-03	8.939427e-04	9.288221e-04	-3.487941e-05	4.818508e-04	2.883932e-05	-5.416019e-05	-6.546664e-05	-8.689351e-05	2.142687e-05
63            	2.346741e-03	1.202272e-03	1.144469e-03	8.946806e-04	9.295656e-04	-3.488498e-05	4.822253e-04	2.890120e-05	-5.437244e-05	-6.509448e-05	-8.691968e-05	2.182520e-05
64            	2.347107e-03	1.202401e-03	1.144706e-03	8.943312e-04	9.292175e-04	-3.488635e-05	4.820519e-04	2.884730e-05	-5.424037e-05	-6.532848e-05	-8.690462e-05	2.157613e-05
65            	2.346973e-03	1.202393e-03	1.144580e-03	8.950020e-04	9.298940e-04	-3.489199e-05	4.823930e-04	2.890681e-05	-5.444710e-05	-6.497061e-05	-8.693241e-05	2.196180e-05
66            	2.347262e-03	1.202486e-03	1.144776e-03	8.946372e-04	9.295289e-04	-3.489179e-05	4.822104e-04	2.885537e-05	-5.430638e-05	-6.521546e-05	-8.691411e-05	2.169865e-05
67            	2.347139e-03	1.202489e-03	1.144651e-03	8.953554e-04	9.302529e-04	-3.489751e-05	4.825752e-04	2.891899e-05	-5.450236e-05	-6.487745e-05	-8.694109e-05	2.206364e-05
68            	2.347421e-03	1.202571e-03	1.144849e-03	8.948879e-04	9.297847e-04	-3.489679e-05	4.823407e-04	2.886091e-05	-5.437660e-05	-6.509532e-05	-8.692426e-05	2.182894e-05
69            	2.347303e-03	1.202568e-03	1.144735e-03	8.954723e-04	9.303738e-04	-3.490152e-05	4.826377e-04	2.891629e-05	-5.456512e-05	-6.477061e-05	-8.695043e-05	2.217982e-05
70            	2.347485e-03	1.202603e-03	1.144882e-03	8.949865e-04	9.298856e-04	-3.489910e-05	4.823924e-04	2.886051e-05	-5.442667e-05	-6.500393e-05	-8.692864e-05	2.192471e-05
71            	2.347414e-03	1.202630e-03	1.144783e-03	8.956658e-04	9.305708e-04	-3.490499e-05	4.827379e-04	2.892338e-05	-5.460934e-05	-6.469454e-05	-8.695661e-05	2.226207e-05
72            	2.347601e-03	1.202665e-03	1.144935e-03	8.951359e-04	9.300382e-04	-3.490236e-05	4.824703e-04	2.886482e-05	-5.448034e-05	-6.491258e-05	-8.693663e-05	2.202404e-05
73            	2.347513e-03	1.202679e-03	1.144834e-03	8.957434e-04	9.306506e-04	-3.490723e-05	4.827789e-04	2.892272e-05	-5.465322e-05	-6.461820e-05	-8.696232e-05	2.234412e-05
74            	2.347644e-03	1.202684e-03	1.144960e-03	8.951551e-04	9.300587e-04	-3.490357e-05	4.824811e-04	2.886191e-05	-5.452259e-05	-6.483457e-05	-8.693987e-05	2.210530e-05
75            	2.347603e-03	1.202723e-03	1.144880e-03	8.957720e-04	9.306812e-04	-3.490919e-05	4.827952e-04	2.892116e-05	-5.469224e-05	-6.455070e-05	-8.696759e-05	2.241689e-05
76            	2.347696e-03	1.202711e-03	1.144985e-03	8.952042e-04	9.301091e-04	-3.490491e-05	4.825070e-04	2.886307e-05	-5.455678e-05	-6.477409e-05	-8.694383e-05	2.216974e-05
77            	2.347658e-03	1.202754e-03	1.144904e-03	8.958687e-04	9.307793e-04	-3.491063e-05	4.828450e-04	2.892524e-05	-5.471781e-05	-6.450537e-05	-8.697050e-05	2.246513e-05
78            	2.347754e-03	1.202739e-03	1.145015e-03	8.952327e-04	9.301390e-04	-3.490625e-05	4.825226e-04	2.886216e-05	-5.459335e-05	-6.470935e-05	-8.694802e-05	2.223868e-05
79            	2.347730e-03	1.202784e-03	1.144946e-03	8.958143e-04	9.307259e-04	-3.491159e-05	4.828187e-04	2.891875e-05	-5.475048e-05	-6.444861e-05	-8.697479e-05	2.252617e-05
80            	2.347755e-03	1.202737e-03	1.145018e-03	8.951994e-04	9.301055e-04	-3.490616e-05	4.825058e-04	2.885927e-05	-5.461420e-05	-6.466869e-05	-8.694854e-05	2.227985e-05
81            	2.347767e-03	1.202807e-03	1.144960e-03	8.958861e-04	9.307988e-04	-3.491262e-05	4.828557e-04	2.892309e-05	-5.476688e-05	-6.441944e-05	-8.697661e-05	2.255716e-05
82            	2.347812e-03	1.202767e-03	1.145045e-03	8.952396e-04	9.301470e-04	-3.490742e-05	4.825272e-04	2.886070e-05	-5.464167e-05	-6.462213e-05	-8.695274e-05	2.233061e-05
83            	2.347813e-03	1.202825e-03	1.144987e-03	8.958543e-04	9.307673e-04	-3.491307e-05	4.828402e-04	2.891910e-05	-5.478825e-05	-6.438180e-05	-8.697915e-05	2.259735e-05
84            	2.347804e-03	1.202759e-03	1.145046e-03	8.951849e-04	9.300919e-04	-3.490703e-05	4.824995e-04	2.885655e-05	-5.465846e-05	-6.458826e-05	-8.695259e-05	2.236433e-05
85            	2.347849e-03	1.202843e-03	1.145006e-03	8.958477e-04	9.307614e-04	-3.491369e-05	4.828375e-04	2.891851e-05	-5.480388e-05	-6.435450e-05	-8.698113e-05	2.262663e-05
86            	2.347830e-03	1.202772e-03	1.145057e-03	8.951967e-04	9.301042e-04	-3.490750e-05	4.825058e-04	2.885750e-05	-5.467441e-05	-6.456060e-05	-8.695471e-05	2.239411e-05
87            	2.347869e-03	1.202854e-03	1.145014e-03	8.958795e-04	9.307935e-04	-3.491400e-05	4.828538e-04	2.892020e-05	-5.481359e-05	-6.433674e-05	-8.698196e-05	2.264522e-05
88            	2.347845e-03	1.202778e-03	1.145067e-03	8.951780e-04	9.300857e-04	-3.490771e-05	4.824967e-04	2.885551e-05	-5.469174e-05	-6.452869e-05	-8.695608e-05	2.242739e-05
89            	2.347905e-03	1.202868e-03	1.145038e-03	8.958141e-04	9.307284e-04	-3.491423e-05	4.828213e-04	2.891503e-05	-5.482965e-05	-6.430892e-05	-8.698411e-05	2.267519e-05
90            	2.347832e-03	1.202770e-03	1.145062e-03	8.951448e-04	9.300520e-04	-3.490726e-05	4.824796e-04	2.885398e-05	-5.469887e-05	-6.451348e-05	-8.695561e-05	2.244213e-05
91            	2.347914e-03	1.202876e-03	1.145038e-03	8.958671e-04	9.307817e-04	-3.491459e-05	4.828481e-04	2.891913e-05	-5.483335e-05	-6.430185e-05	-8.698427e-05	2.268242e-05
92            	2.347865e-03	1.202787e-03	1.145078e-03	8.951637e-04	9.300717e-04	-3.490794e-05	4.824898e-04	2.885480e-05	-5.471400e-05	-6.448819e-05	-8.695810e-05	2.246991e-05
93            	2.347941e-03	1.202885e-03	1.145056e-03	8.958116e-04	9.307262e-04	-3.491461e-05	4.828204e-04	2.891446e-05	-5.484512e-05	-6.428128e-05	-8.698576e-05	2.270448e-05
94            	2.347840e-03	1.202771e-03	1.145069e-03	8.951066e-04	9.300138e-04	-3.490721e-05	4.824605e-04	2.885140e-05	-5.471921e-05	-6.447520e-05	-8.695681e-05	2.248161e-05
95            	2.347954e-03	1.202893e-03	1.145061e-03	8.958220e-04	9.307369e-04	-3.491490e-05	4.828259e-04	2.891581e-05	-5.484973e-05	-6.427319e-05	-8.698632e-05	2.271313e-05
96            	2.347861e-03	1.202783e-03	1.145077e-03	8.951232e-04	9.300308e-04	-3.490761e-05	4.824692e-04	2.885289e-05	-5.472795e-05	-6.446108e-05	-8.695849e-05	2.249741e-05
97            	2.347964e-03	1.202898e-03	1.145066e-03	8.958285e-04	9.307434e-04	-3.491492e-05	4.828292e-04	2.891601e-05	-5.485374e-05	-6.426575e-05	-8.698662e-05	2.272087e-05
98            	2.347856e-03	1.202779e-03	1.145077e-03	8.950935e-04	9.300009e-04	-3.490740e-05	4.824541e-04	2.885076e-05	-5.473550e-05	-6.444591e-05	-8.695845e-05	2.251254e-05
99            	2.347984e-03	1.202905e-03	1.145079e-03	8.957813e-04	9.306964e-04	-3.491501e-05	4.828057e-04	2.891277e-05	-5.486143e-05	-6.425270e-05	-8.698778e-05	2.273508e-05
100           	2.347847e-03	1.202774e-03	1.145073e-03	8.950782e-04	9.299853e-04	-3.490710e-05	4.824462e-04	2.885057e-05	-5.473742e-05	-6.444137e-05	-8.695811e-05	2.251674e-05
101           	2.347984e-03	1.202908e-03	1.145076e-03	8.958275e-04	9.307427e-04	-3.491516e-05	4.828289e-04	2.891642e-05	-5.486020e-05	-6.425441e-05	-8.698740e-05	2.273299e-05
102           	2.347866e-03	1.202784e-03	1.145082e-03	8.950880e-04	9.299955e-04	-3.490752e-05	4.824515e-04	2.885089e-05	-5.474628e-05	-6.442663e-05	-8.695960e-05	2.253297e-05
103           	2.348003e-03	1.202914e-03	1.145090e-03	8.957705e-04	9.306856e-04	-3.491511e-05	4.828004e-04	2.891195e-05	-5.486754e-05	-6.424189e-05	-8.698848e-05	2.274659e-05
104           	2.347840e-03	1.202768e-03	1.145071e-03	8.950436e-04	9.299505e-04	-3.490682e-05	4.824286e-04	2.884857e-05	-5.474614e-05	-6.442393e-05	-8.695810e-05	2.253417e-05
105           	2.348006e-03	1.202918e-03	1.145088e-03	8.957987e-04	9.307140e-04	-3.491531e-05	4.828147e-04	2.891463e-05	-5.486678e-05	-6.424321e-05	-8.698838e-05	2.274517e-05
106           	2.347860e-03	1.202780e-03	1.145080e-03	8.950653e-04	9.299726e-04	-3.490728e-05	4.824399e-04	2.885020e-05	-5.475199e-05	-6.441535e-05	-8.695967e-05	2.254431e-05
107           	2.348014e-03	1.202920e-03	1.145093e-03	8.957873e-04	9.307025e-04	-3.491525e-05	4.828089e-04	2.891353e-05	-5.486924e-05	-6.423881e-05	-8.698865e-05	2.274983e-05
108           	2.347845e-03	1.202771e-03	1.145075e-03	8.950320e-04	9.299388e-04	-3.490686e-05	4.824228e-04	2.884809e-05	-5.475426e-05	-6.440919e-05	-8.695886e-05	2.254967e-05
109           	2.348025e-03	1.202925e-03	1.145100e-03	8.957624e-04	9.306777e-04	-3.491534e-05	4.827965e-04	2.891214e-05	-5.487224e-05	-6.423395e-05	-8.698922e-05	2.275527e-05
110           	2.347844e-03	1.202771e-03	1.145073e-03	8.950314e-04	9.299382e-04	-3.490680e-05	4.824225e-04	2.884875e-05	-5.475491e-05	-6.440811e-05	-8.695896e-05	2.255085e-05
111           	2.348023e-03	1.202926e-03	1.145097e-03	8.957963e-04	9.307116e-04	-3.491539e-05	4.828135e-04	2.891474e-05	-5.486989e-05	-6.423782e-05	-8.698880e-05	2.275099e-05
112           	2.347853e-03	1.202775e-03	1.145078e-03	8.950309e-04	9.299379e-04	-3.490699e-05	4.824224e-04	2.884846e-05	-5.476014e-05	-6.439915e-05	-8.695971e-05	2.256056e-05
113           	2.348039e-03	1.202931e-03	1.145109e-03	8.957468e-04	9.306622e-04	-3.491537e-05	4.827888e-04	2.891104e-05	-5.487468e-05	-6.422997e-05	-8.698967e-05	2.275970e-05
114           	2.347832e-03	1.202763e-03	1.145069e-03	8.950019e-04	9.299083e-04	-3.490647e-05	4.824074e-04	2.884723e-05	-5.475804e-05	-6.440087e-05	-8.695848e-05	2.255761e-05
115           	2.348039e-03	1.202933e-03	1.145105e-03	8.957827e-04	9.306983e-04	-3.491553e-05	4.828069e-04	2.891416e-05	-5.487159e-05	-6.423542e-05	-8.698930e-05	2.275388e-05
116           	2.347852e-03	1.202774e-03	1.145077e-03	8.950216e-04	9.299286e-04	-3.490691e-05	4.824177e-04	2.884854e-05	-5.476261e-05	-6.439451e-05	-8.695986e-05	2.256535e-05
117           	2.348048e-03	1.202936e-03	1.145112e-03	8.957582e-04	9.306737e-04	-3.491548e-05	4.827946e-04	2.891209e-05	-5.487386e-05	-6.423170e-05	-8.698971e-05	2.275801e-05
118           	2.347833e-03	1.202763e-03	1.145070e-03	8.949885e-04	9.298950e-04	-3.490642e-05	4.824007e-04	2.884662e-05	-5.476206e-05	-6.439334e-05	-8.695873e-05	2.256539e-05
119           	2.348055e-03	1.202940e-03	1.145115e-03	8.957544e-04	9.306700e-04	-3.491560e-05	4.827928e-04	2.891229e-05	-5.487386e-05	-6.423210e-05	-8.698991e-05	2.275781e-05
120           	2.347838e-03	1.202767e-03	1.145072e-03	8.949976e-04	9.299041e-04	-3.490656e-05	4.824054e-04	2.884771e-05	-5.476296e-05	-6.439259e-05	-8.695926e-05	2.256666e-05
121           	2.348055e-03	1.202941e-03	1.145114e-03	8.957724e-04	9.306881e-04	-3.491560e-05	4.828018e-04	2.891359e-05	-5.487201e-05	-6.423527e-05	-8.698965e-05	2.275438e-05
122           	2.347839e-03	1.202766e-03	1.145072e-03	8.949873e-04	9.298938e-04	-3.490654e-05	4.824002e-04	2.884689e-05	-5.476574e-05	-6.438726e-05	-8.695937e-05	2.257210e-05
123           	2.348067e-03	1.202945e-03	1.145123e-03	8.957348e-04	9.306504e-04	-3.491562e-05	4.827830e-04	2.891092e-05	-5.487498e-05	-6.423062e-05	-8.699029e-05	2.275967e-05
124           	2.347824e-03	1.202759e-03	1.145066e-03	8.949713e-04	9.298775e-04	-3.490620e-05	4.823918e-04	2.884649e-05	-5.476364e-05	-6.438987e-05	-8.695857e-05	2.256870e-05
125           	2.348065e-03	1.202946e-03	1.145118e-03	8.957696e-04	9.306853e-04	-3.491573e-05	4.828005e-04	2.891381e-05	-5.487144e-05	-6.423679e-05	-8.698983e-05	2.275304e-05
126           	2.347839e-03	1.202767e-03	1.145072e-03	8.949842e-04	9.298907e-04	-3.490655e-05	4.823986e-04	2.884724e-05	-5.476748e-05	-6.438430e-05	-8.695963e-05	2.257532e-05
127           	2.348075e-03	1.202949e-03	1.145126e-03	8.957374e-04	9.306530e-04	-3.491568e-05	4.827844e-04	2.891126e-05	-5.487392e-05	-6.423281e-05	-8.699033e-05	2.275752e-05
128           	2.347819e-03	1.202755e-03	1.145064e-03	8.949544e-04	9.298604e-04	-3.490606e-05	4.823833e-04	2.884568e-05	-5.476575e-05	-6.438541e-05	-8.695845e-05	2.257305e-05
129           	2.348077e-03	1.202951e-03	1.145126e-03	8.957485e-04	9.306643e-04	-3.491581e-05	4.827901e-04	2.891256e-05	-5.487232e-05	-6.423588e-05	-8.699026e-05	2.275438e-05
130           	2.347829e-03	1.202761e-03	1.145068e-03	8.949674e-04	9.298737e-04	-3.490631e-05	4.823900e-04	2.884684e-05	-5.476743e-05	-6.438361e-05	-8.695924e-05	2.257563e-05
131           	2.348080e-03	1.202953e-03	1.145127e-03	8.957505e-04	9.306663e-04	-3.491578e-05	4.827911e-04	2.891261e-05	-5.487164e-05	-6.423715e-05	-8.699021e-05	2.275306e-05
132           	2.347822e-03	1.202757e-03	1.145065e-03	8.949496e-04	9.298557e-04	-3.490612e-05	4.823809e-04	2.884569e-05	-5.476844e-05	-6.438086e-05	-8.695887e-05	2.257801e-05
133           	2.348089e-03	1.202956e-03	1.145133e-03	8.957263e-04	9.306421e-04	-3.491583e-05	4.827790e-04	2.891108e-05	-5.487310e-05	-6.423507e-05	-8.699064e-05	2.275556e-05
134           	2.347816e-03	1.202754e-03	1.145062e-03	8.949435e-04	9.298495e-04	-3.490598e-05	4.823777e-04	2.884586e-05	-5.476714e-05	-6.438287e-05	-8.695857e-05	2.257571e-05
135           	2.348087e-03	1.202957e-03	1.145130e-03	8.957535e-04	9.306694e-04	-3.491589e-05	4.827927e-04	2.891328e-05	-5.487004e-05	-6.424040e-05	-8.699024e-05	2.274984e-05
136           	2.347825e-03	1.202758e-03	1.145066e-03	8.949478e-04	9.298540e-04	-3.490618e-05	4.823801e-04	2.884603e-05	-5.477010e-05	-6.437826e-05	-8.695923e-05	2.258097e-05
137           	2.348097e-03	1.202959e-03	1.145138e-03	8.957210e-04	9.306369e-04	-3.491587e-05	4.827764e-04	2.891082e-05	-5.487237e-05	-6.423676e-05	-8.699075e-05	2.275399e-05
138           	2.347808e-03	1.202749e-03	1.145059e-03	8.949245e-04	9.298303e-04	-3.490578e-05	4.823680e-04	2.884497e-05	-5.476807e-05	-6.438032e-05	-8.695823e-05	2.257791e-05
139           	2.348097e-03	1.202961e-03	1.145136e-03	8.957403e-04	9.306563e-04	-3.491599e-05	4.827861e-04	2.891264e-05	-5.486998e-05	-6.424109e-05	-8.699052e-05	2.274944e-05
140           	2.347819e-03	1.202756e-03	1.145064e-03	8.949377e-04	9.298438e-04	-3.490606e-05	4.823749e-04	2.884596e-05	-5.477020e-05	-6.437776e-05	-8.695908e-05	2.258132e-05
141           	2.348102e-03	1.202963e-03	1.145139e-03	8.957304e-04	9.306464e-04	-3.491596e-05	4.827812e-04	2.891179e-05	-5.487033e-05	-6.424066e-05	-8.699066e-05	2.275000e-05
142           	2.347808e-03	1.202749e-03	1.145059e-03	8.949166e-04	9.298224e-04	-3.490579e-05	4.823641e-04	2.884473e-05	-5.477003e-05	-6.437679e-05	-8.695843e-05	2.258164e-05
143           	2.348107e-03	1.202965e-03	1.145142e-03	8.957198e-04	9.306359e-04	-3.491603e-05	4.827759e-04	2.891133e-05	-5.487055e-05	-6.424064e-05	-8.699087e-05	2.275023e-05
144           	2.347808e-03	1.202749e-03	1.145059e-03	8.949180e-04	9.298238e-04	-3.490579e-05	4.823648e-04	2.884525e-05	-5.476973e-05	-6.437759e-05	-8.695853e-05	2.258094e-05
145           	2.348106e-03	1.202966e-03	1.145141e-03	8.957368e-04	9.306529e-04	-3.491605e-05	4.827845e-04	2.891265e-05	-5.486844e-05	-6.424433e-05	-8.699060e-05	2.274627e-05
146           	2.347811e-03	1.202750e-03	1.145061e-03	8.949146e-04	9.298205e-04	-3.490586e-05	4.823632e-04	2.884495e-05	-5.477176e-05	-6.437405e-05	-8.695878e-05	2.258473e-05
147           	2.348115e-03	1.202968e-03	1.145147e-03	8.957088e-04	9.306249e-04	-3.491606e-05	4.827705e-04	2.891063e-05	-5.487034e-05	-6.424142e-05	-8.699105e-05	2.274963e-05
148           	2.347799e-03	1.202744e-03	1.145055e-03	8.948993e-04	9.298049e-04	-3.490557e-05	4.823552e-04	2.884440e-05	-5.476997e-05	-6.437623e-05	-8.695808e-05	2.258185e-05
149           	2.348114e-03	1.202970e-03	1.145145e-03	8.957305e-04	9.306466e-04	-3.491615e-05	4.827814e-04	2.891252e-05	-5.486779e-05	-6.424594e-05	-8.699076e-05	2.274482e-05
150           	2.347809e-03	1.202749e-03	1.145059e-03	8.949091e-04	9.298149e-04	-3.490582e-05	4.823603e-04	2.884506e-05	-5.477225e-05	-6.437314e-05	-8.695882e-05	2.258568e-05
151           	2.348120e-03	1.202971e-03	1.145149e-03	8.957132e-04	9.306293e-04	-3.491612e-05	4.827727e-04	2.891113e-05	-5.486884e-05	-6.424435e-05	-8.699102e-05	2.274667e-05
152           	2.347796e-03	1.202742e-03	1.145054e-03	8.948891e-04	9.297946e-04	-3.490551e-05	4.823501e-04	2.884398e-05	-5.477129e-05	-6.437357e-05	-8.695808e-05	2.258451e-05
153           	2.348123e-03	1.202973e-03	1.145150e-03	8.957144e-04	9.306306e-04	-3.491620e-05	4.827734e-04	2.891154e-05	-5.486808e-05	-6.424595e-05	-8.699105e-05	2.274510e-05
154           	2.347800e-03	1.202745e-03	1.145056e-03	8.948952e-04	9.298008e-04	-3.490562e-05	4.823532e-04	2.884466e-05	-5.477182e-05	-6.437325e-05	-8.695845e-05	2.258519e-05
155           	2.348124e-03	1.202974e-03	1.145150e-03	8.957211e-04	9.306373e-04	-3.491620e-05	4.827768e-04	2.891202e-05	-5.486694e-05	-6.424799e-05	-8.699093e-05	2.274294e-05
156           	2.347798e-03	1.202743e-03	1.145055e-03	8.948863e-04	9.297919e-04	-3.490556e-05	4.823487e-04	2.884406e-05	-5.477286e-05	-6.437100e-05	-8.695837e-05	2.258736e-05
157           	2.348131e-03	1.202976e-03	1.145155e-03	8.957011e-04	9.306173e-04	-3.491622e-05	4.827668e-04	2.891066e-05	-5.486813e-05	-6.424628e-05	-8.699127e-05	2.274499e-05
158           	2.347791e-03	1.202740e-03	1.145052e-03	8.948784e-04	9.297838e-04	-3.490540e-05	4.823446e-04	2.884395e-05	-5.477162e-05	-6.437274e-05	-8.695799e-05	2.258525e-05
159           	2.348130e-03	1.202977e-03	1.145153e-03	8.957205e-04	9.306368e-04	-3.491628e-05	4.827765e-04	2.891227e-05	-5.486584e-05	-6.425030e-05	-8.699100e-05	2.274069e-05
160           	2.347798e-03	1.202743e-03	1.145055e-03	8.948837e-04	9.297893e-04	-3.490557e-05	4.823474e-04	2.884425e-05	-5.477363e-05	-6.436978e-05	-8.695852e-05	2.258875e-05
161           	2.348136e-03	1.202979e-03	1.145157e-03	8.957007e-04	9.306169e-04	-3.491626e-05	4.827666e-04	2.891073e-05	-5.486715e-05	-6.424831e-05	-8.699130e-05	2.274300e-05
162           	2.347787e-03	1.202737e-03	1.145050e-03	8.948671e-04	9.297724e-04	-3.490529e-05	4.823388e-04	2.884343e-05	-5.477237e-05	-6.437093e-05	-8.695783e-05	2.258690e-05
163           	2.348137e-03	1.202980e-03	1.145157e-03	8.957099e-04	9.306263e-04	-3.491635e-05	4.827713e-04	2.891168e-05	-5.486579e-05	-6.425086e-05	-8.699122e-05	2.274035e-05
164           	2.347793e-03	1.202741e-03	1.145052e-03	8.948750e-04	9.297805e-04	-3.490545e-05	4.823430e-04	2.884410e-05	-5.477345e-05	-6.436974e-05	-8.695832e-05	2.258858e-05
165           	2.348140e-03	1.202981e-03	1.145158e-03	8.957082e-04	9.306245e-04	-3.491633e-05	4.827704e-04	2.891148e-05	-5.486550e-05	-6.425147e-05	-8.699123e-05	2.273976e-05
166           	2.347787e-03	1.202737e-03	1.145050e-03	8.948633e-04	9.297687e-04	-3.490531e-05	4.823370e-04	2.884337e-05	-5.477370e-05	-6.436862e-05	-8.695801e-05	2.258939e-05
167           	2.348145e-03	1.202983e-03	1.145162e-03	8.956971e-04	9.306135e-04	-3.491637e-05	4.827649e-04	2.891082e-05	-5.486596e-05	-6.425095e-05	-8.699144e-05	2.274049e-05